Model for PE

       12100     atoms
       10890     bonds
       9680     angles

       3   atom types
       2     bond types
       1     angle types

   0.000   100.000  xlo xhi
   0.000   100.000  ylo yhi
   0.000   100.000  zlo zhi

Masses

        1          1.
        2          1.
        3          1.
Atoms

        1      2      2      17.0000      17.0000     18.1000
        2      2      3      17.0000      17.0000     18.2000
        3      2      3      17.0000      17.0000     18.3000
        4      2      3      17.0000      17.0000     18.4000
        5      2      3      17.0000      17.0000     18.5000
        6      2      3      17.0000      17.0000     18.6000
        7      2      3      17.0000      17.0000     18.7000
        8      2      3      17.0000      17.0000     18.8000
        9      2      3      17.0000      17.0000     18.9000
       10      2      2      17.0000      17.0000     19.0000
       11      3      2      17.0000      17.0000     25.1000
       12      3      3      17.0000      17.0000     25.2000
       13      3      3      17.0000      17.0000     25.3000
       14      3      3      17.0000      17.0000     25.4000
       15      3      3      17.0000      17.0000     25.5000
       16      3      3      17.0000      17.0000     25.6000
       17      3      3      17.0000      17.0000     25.7000
       18      3      3      17.0000      17.0000     25.8000
       19      3      3      17.0000      17.0000     25.9000
       20      3      2      17.0000      17.0000     26.0000
       21      4      2      17.0000      17.0000     32.1000
       22      4      3      17.0000      17.0000     32.2000
       23      4      3      17.0000      17.0000     32.3000
       24      4      3      17.0000      17.0000     32.4000
       25      4      3      17.0000      17.0000     32.5000
       26      4      3      17.0000      17.0000     32.6000
       27      4      3      17.0000      17.0000     32.7000
       28      4      3      17.0000      17.0000     32.8000
       29      4      3      17.0000      17.0000     32.9000
       30      4      2      17.0000      17.0000     33.0000
       31      5      2      17.0000      17.0000     39.1000
       32      5      3      17.0000      17.0000     39.2000
       33      5      3      17.0000      17.0000     39.3000
       34      5      3      17.0000      17.0000     39.4000
       35      5      3      17.0000      17.0000     39.5000
       36      5      3      17.0000      17.0000     39.6000
       37      5      3      17.0000      17.0000     39.7000
       38      5      3      17.0000      17.0000     39.8000
       39      5      3      17.0000      17.0000     39.9000
       40      5      2      17.0000      17.0000     40.0000
       41      6      2      17.0000      17.0000     46.1000
       42      6      3      17.0000      17.0000     46.2000
       43      6      3      17.0000      17.0000     46.3000
       44      6      3      17.0000      17.0000     46.4000
       45      6      3      17.0000      17.0000     46.5000
       46      6      3      17.0000      17.0000     46.6000
       47      6      3      17.0000      17.0000     46.7000
       48      6      3      17.0000      17.0000     46.8000
       49      6      3      17.0000      17.0000     46.9000
       50      6      2      17.0000      17.0000     47.0000
       51      7      2      17.0000      17.0000     53.1000
       52      7      3      17.0000      17.0000     53.2000
       53      7      3      17.0000      17.0000     53.3000
       54      7      3      17.0000      17.0000     53.4000
       55      7      3      17.0000      17.0000     53.5000
       56      7      3      17.0000      17.0000     53.6000
       57      7      3      17.0000      17.0000     53.7000
       58      7      3      17.0000      17.0000     53.8000
       59      7      3      17.0000      17.0000     53.9000
       60      7      2      17.0000      17.0000     54.0000
       61      8      2      17.0000      17.0000     60.1000
       62      8      3      17.0000      17.0000     60.2000
       63      8      3      17.0000      17.0000     60.3000
       64      8      3      17.0000      17.0000     60.4000
       65      8      3      17.0000      17.0000     60.5000
       66      8      3      17.0000      17.0000     60.6000
       67      8      3      17.0000      17.0000     60.7000
       68      8      3      17.0000      17.0000     60.8000
       69      8      3      17.0000      17.0000     60.9000
       70      8      2      17.0000      17.0000     61.0000
       71      9      2      17.0000      17.0000     67.1000
       72      9      3      17.0000      17.0000     67.2000
       73      9      3      17.0000      17.0000     67.3000
       74      9      3      17.0000      17.0000     67.4000
       75      9      3      17.0000      17.0000     67.5000
       76      9      3      17.0000      17.0000     67.6000
       77      9      3      17.0000      17.0000     67.7000
       78      9      3      17.0000      17.0000     67.8000
       79      9      3      17.0000      17.0000     67.9000
       80      9      2      17.0000      17.0000     68.0000
       81     10      2      17.0000      17.0000     74.1000
       82     10      3      17.0000      17.0000     74.2000
       83     10      3      17.0000      17.0000     74.3000
       84     10      3      17.0000      17.0000     74.4000
       85     10      3      17.0000      17.0000     74.5000
       86     10      3      17.0000      17.0000     74.6000
       87     10      3      17.0000      17.0000     74.7000
       88     10      3      17.0000      17.0000     74.8000
       89     10      3      17.0000      17.0000     74.9000
       90     10      2      17.0000      17.0000     75.0000
       91     11      2      17.0000      17.0000     81.1000
       92     11      3      17.0000      17.0000     81.2000
       93     11      3      17.0000      17.0000     81.3000
       94     11      3      17.0000      17.0000     81.4000
       95     11      3      17.0000      17.0000     81.5000
       96     11      3      17.0000      17.0000     81.6000
       97     11      3      17.0000      17.0000     81.7000
       98     11      3      17.0000      17.0000     81.8000
       99     11      3      17.0000      17.0000     81.9000
      100     11      2      17.0000      17.0000     82.0000
      101     12      2      17.0000      23.0000     18.1000
      102     12      3      17.0000      23.0000     18.2000
      103     12      3      17.0000      23.0000     18.3000
      104     12      3      17.0000      23.0000     18.4000
      105     12      3      17.0000      23.0000     18.5000
      106     12      3      17.0000      23.0000     18.6000
      107     12      3      17.0000      23.0000     18.7000
      108     12      3      17.0000      23.0000     18.8000
      109     12      3      17.0000      23.0000     18.9000
      110     12      2      17.0000      23.0000     19.0000
      111     13      2      17.0000      23.0000     25.1000
      112     13      3      17.0000      23.0000     25.2000
      113     13      3      17.0000      23.0000     25.3000
      114     13      3      17.0000      23.0000     25.4000
      115     13      3      17.0000      23.0000     25.5000
      116     13      3      17.0000      23.0000     25.6000
      117     13      3      17.0000      23.0000     25.7000
      118     13      3      17.0000      23.0000     25.8000
      119     13      3      17.0000      23.0000     25.9000
      120     13      2      17.0000      23.0000     26.0000
      121     14      2      17.0000      23.0000     32.1000
      122     14      3      17.0000      23.0000     32.2000
      123     14      3      17.0000      23.0000     32.3000
      124     14      3      17.0000      23.0000     32.4000
      125     14      3      17.0000      23.0000     32.5000
      126     14      3      17.0000      23.0000     32.6000
      127     14      3      17.0000      23.0000     32.7000
      128     14      3      17.0000      23.0000     32.8000
      129     14      3      17.0000      23.0000     32.9000
      130     14      2      17.0000      23.0000     33.0000
      131     15      2      17.0000      23.0000     39.1000
      132     15      3      17.0000      23.0000     39.2000
      133     15      3      17.0000      23.0000     39.3000
      134     15      3      17.0000      23.0000     39.4000
      135     15      3      17.0000      23.0000     39.5000
      136     15      3      17.0000      23.0000     39.6000
      137     15      3      17.0000      23.0000     39.7000
      138     15      3      17.0000      23.0000     39.8000
      139     15      3      17.0000      23.0000     39.9000
      140     15      2      17.0000      23.0000     40.0000
      141     16      2      17.0000      23.0000     46.1000
      142     16      3      17.0000      23.0000     46.2000
      143     16      3      17.0000      23.0000     46.3000
      144     16      3      17.0000      23.0000     46.4000
      145     16      3      17.0000      23.0000     46.5000
      146     16      3      17.0000      23.0000     46.6000
      147     16      3      17.0000      23.0000     46.7000
      148     16      3      17.0000      23.0000     46.8000
      149     16      3      17.0000      23.0000     46.9000
      150     16      2      17.0000      23.0000     47.0000
      151     17      2      17.0000      23.0000     53.1000
      152     17      3      17.0000      23.0000     53.2000
      153     17      3      17.0000      23.0000     53.3000
      154     17      3      17.0000      23.0000     53.4000
      155     17      3      17.0000      23.0000     53.5000
      156     17      3      17.0000      23.0000     53.6000
      157     17      3      17.0000      23.0000     53.7000
      158     17      3      17.0000      23.0000     53.8000
      159     17      3      17.0000      23.0000     53.9000
      160     17      2      17.0000      23.0000     54.0000
      161     18      2      17.0000      23.0000     60.1000
      162     18      3      17.0000      23.0000     60.2000
      163     18      3      17.0000      23.0000     60.3000
      164     18      3      17.0000      23.0000     60.4000
      165     18      3      17.0000      23.0000     60.5000
      166     18      3      17.0000      23.0000     60.6000
      167     18      3      17.0000      23.0000     60.7000
      168     18      3      17.0000      23.0000     60.8000
      169     18      3      17.0000      23.0000     60.9000
      170     18      2      17.0000      23.0000     61.0000
      171     19      2      17.0000      23.0000     67.1000
      172     19      3      17.0000      23.0000     67.2000
      173     19      3      17.0000      23.0000     67.3000
      174     19      3      17.0000      23.0000     67.4000
      175     19      3      17.0000      23.0000     67.5000
      176     19      3      17.0000      23.0000     67.6000
      177     19      3      17.0000      23.0000     67.7000
      178     19      3      17.0000      23.0000     67.8000
      179     19      3      17.0000      23.0000     67.9000
      180     19      2      17.0000      23.0000     68.0000
      181     20      2      17.0000      23.0000     74.1000
      182     20      3      17.0000      23.0000     74.2000
      183     20      3      17.0000      23.0000     74.3000
      184     20      3      17.0000      23.0000     74.4000
      185     20      3      17.0000      23.0000     74.5000
      186     20      3      17.0000      23.0000     74.6000
      187     20      3      17.0000      23.0000     74.7000
      188     20      3      17.0000      23.0000     74.8000
      189     20      3      17.0000      23.0000     74.9000
      190     20      2      17.0000      23.0000     75.0000
      191     21      2      17.0000      23.0000     81.1000
      192     21      3      17.0000      23.0000     81.2000
      193     21      3      17.0000      23.0000     81.3000
      194     21      3      17.0000      23.0000     81.4000
      195     21      3      17.0000      23.0000     81.5000
      196     21      3      17.0000      23.0000     81.6000
      197     21      3      17.0000      23.0000     81.7000
      198     21      3      17.0000      23.0000     81.8000
      199     21      3      17.0000      23.0000     81.9000
      200     21      2      17.0000      23.0000     82.0000
      201     22      2      17.0000      29.0000     18.1000
      202     22      3      17.0000      29.0000     18.2000
      203     22      3      17.0000      29.0000     18.3000
      204     22      3      17.0000      29.0000     18.4000
      205     22      3      17.0000      29.0000     18.5000
      206     22      3      17.0000      29.0000     18.6000
      207     22      3      17.0000      29.0000     18.7000
      208     22      3      17.0000      29.0000     18.8000
      209     22      3      17.0000      29.0000     18.9000
      210     22      2      17.0000      29.0000     19.0000
      211     23      2      17.0000      29.0000     25.1000
      212     23      3      17.0000      29.0000     25.2000
      213     23      3      17.0000      29.0000     25.3000
      214     23      3      17.0000      29.0000     25.4000
      215     23      3      17.0000      29.0000     25.5000
      216     23      3      17.0000      29.0000     25.6000
      217     23      3      17.0000      29.0000     25.7000
      218     23      3      17.0000      29.0000     25.8000
      219     23      3      17.0000      29.0000     25.9000
      220     23      2      17.0000      29.0000     26.0000
      221     24      2      17.0000      29.0000     32.1000
      222     24      3      17.0000      29.0000     32.2000
      223     24      3      17.0000      29.0000     32.3000
      224     24      3      17.0000      29.0000     32.4000
      225     24      3      17.0000      29.0000     32.5000
      226     24      3      17.0000      29.0000     32.6000
      227     24      3      17.0000      29.0000     32.7000
      228     24      3      17.0000      29.0000     32.8000
      229     24      3      17.0000      29.0000     32.9000
      230     24      2      17.0000      29.0000     33.0000
      231     25      2      17.0000      29.0000     39.1000
      232     25      3      17.0000      29.0000     39.2000
      233     25      3      17.0000      29.0000     39.3000
      234     25      3      17.0000      29.0000     39.4000
      235     25      3      17.0000      29.0000     39.5000
      236     25      3      17.0000      29.0000     39.6000
      237     25      3      17.0000      29.0000     39.7000
      238     25      3      17.0000      29.0000     39.8000
      239     25      3      17.0000      29.0000     39.9000
      240     25      2      17.0000      29.0000     40.0000
      241     26      2      17.0000      29.0000     46.1000
      242     26      3      17.0000      29.0000     46.2000
      243     26      3      17.0000      29.0000     46.3000
      244     26      3      17.0000      29.0000     46.4000
      245     26      3      17.0000      29.0000     46.5000
      246     26      3      17.0000      29.0000     46.6000
      247     26      3      17.0000      29.0000     46.7000
      248     26      3      17.0000      29.0000     46.8000
      249     26      3      17.0000      29.0000     46.9000
      250     26      2      17.0000      29.0000     47.0000
      251     27      2      17.0000      29.0000     53.1000
      252     27      3      17.0000      29.0000     53.2000
      253     27      3      17.0000      29.0000     53.3000
      254     27      3      17.0000      29.0000     53.4000
      255     27      3      17.0000      29.0000     53.5000
      256     27      3      17.0000      29.0000     53.6000
      257     27      3      17.0000      29.0000     53.7000
      258     27      3      17.0000      29.0000     53.8000
      259     27      3      17.0000      29.0000     53.9000
      260     27      2      17.0000      29.0000     54.0000
      261     28      2      17.0000      29.0000     60.1000
      262     28      3      17.0000      29.0000     60.2000
      263     28      3      17.0000      29.0000     60.3000
      264     28      3      17.0000      29.0000     60.4000
      265     28      3      17.0000      29.0000     60.5000
      266     28      3      17.0000      29.0000     60.6000
      267     28      3      17.0000      29.0000     60.7000
      268     28      3      17.0000      29.0000     60.8000
      269     28      3      17.0000      29.0000     60.9000
      270     28      2      17.0000      29.0000     61.0000
      271     29      2      17.0000      29.0000     67.1000
      272     29      3      17.0000      29.0000     67.2000
      273     29      3      17.0000      29.0000     67.3000
      274     29      3      17.0000      29.0000     67.4000
      275     29      3      17.0000      29.0000     67.5000
      276     29      3      17.0000      29.0000     67.6000
      277     29      3      17.0000      29.0000     67.7000
      278     29      3      17.0000      29.0000     67.8000
      279     29      3      17.0000      29.0000     67.9000
      280     29      2      17.0000      29.0000     68.0000
      281     30      2      17.0000      29.0000     74.1000
      282     30      3      17.0000      29.0000     74.2000
      283     30      3      17.0000      29.0000     74.3000
      284     30      3      17.0000      29.0000     74.4000
      285     30      3      17.0000      29.0000     74.5000
      286     30      3      17.0000      29.0000     74.6000
      287     30      3      17.0000      29.0000     74.7000
      288     30      3      17.0000      29.0000     74.8000
      289     30      3      17.0000      29.0000     74.9000
      290     30      2      17.0000      29.0000     75.0000
      291     31      2      17.0000      29.0000     81.1000
      292     31      3      17.0000      29.0000     81.2000
      293     31      3      17.0000      29.0000     81.3000
      294     31      3      17.0000      29.0000     81.4000
      295     31      3      17.0000      29.0000     81.5000
      296     31      3      17.0000      29.0000     81.6000
      297     31      3      17.0000      29.0000     81.7000
      298     31      3      17.0000      29.0000     81.8000
      299     31      3      17.0000      29.0000     81.9000
      300     31      2      17.0000      29.0000     82.0000
      301     32      2      17.0000      35.0000     18.1000
      302     32      3      17.0000      35.0000     18.2000
      303     32      3      17.0000      35.0000     18.3000
      304     32      3      17.0000      35.0000     18.4000
      305     32      3      17.0000      35.0000     18.5000
      306     32      3      17.0000      35.0000     18.6000
      307     32      3      17.0000      35.0000     18.7000
      308     32      3      17.0000      35.0000     18.8000
      309     32      3      17.0000      35.0000     18.9000
      310     32      2      17.0000      35.0000     19.0000
      311     33      2      17.0000      35.0000     25.1000
      312     33      3      17.0000      35.0000     25.2000
      313     33      3      17.0000      35.0000     25.3000
      314     33      3      17.0000      35.0000     25.4000
      315     33      3      17.0000      35.0000     25.5000
      316     33      3      17.0000      35.0000     25.6000
      317     33      3      17.0000      35.0000     25.7000
      318     33      3      17.0000      35.0000     25.8000
      319     33      3      17.0000      35.0000     25.9000
      320     33      2      17.0000      35.0000     26.0000
      321     34      2      17.0000      35.0000     32.1000
      322     34      3      17.0000      35.0000     32.2000
      323     34      3      17.0000      35.0000     32.3000
      324     34      3      17.0000      35.0000     32.4000
      325     34      3      17.0000      35.0000     32.5000
      326     34      3      17.0000      35.0000     32.6000
      327     34      3      17.0000      35.0000     32.7000
      328     34      3      17.0000      35.0000     32.8000
      329     34      3      17.0000      35.0000     32.9000
      330     34      2      17.0000      35.0000     33.0000
      331     35      2      17.0000      35.0000     39.1000
      332     35      3      17.0000      35.0000     39.2000
      333     35      3      17.0000      35.0000     39.3000
      334     35      3      17.0000      35.0000     39.4000
      335     35      3      17.0000      35.0000     39.5000
      336     35      3      17.0000      35.0000     39.6000
      337     35      3      17.0000      35.0000     39.7000
      338     35      3      17.0000      35.0000     39.8000
      339     35      3      17.0000      35.0000     39.9000
      340     35      2      17.0000      35.0000     40.0000
      341     36      2      17.0000      35.0000     46.1000
      342     36      3      17.0000      35.0000     46.2000
      343     36      3      17.0000      35.0000     46.3000
      344     36      3      17.0000      35.0000     46.4000
      345     36      3      17.0000      35.0000     46.5000
      346     36      3      17.0000      35.0000     46.6000
      347     36      3      17.0000      35.0000     46.7000
      348     36      3      17.0000      35.0000     46.8000
      349     36      3      17.0000      35.0000     46.9000
      350     36      2      17.0000      35.0000     47.0000
      351     37      2      17.0000      35.0000     53.1000
      352     37      3      17.0000      35.0000     53.2000
      353     37      3      17.0000      35.0000     53.3000
      354     37      3      17.0000      35.0000     53.4000
      355     37      3      17.0000      35.0000     53.5000
      356     37      3      17.0000      35.0000     53.6000
      357     37      3      17.0000      35.0000     53.7000
      358     37      3      17.0000      35.0000     53.8000
      359     37      3      17.0000      35.0000     53.9000
      360     37      2      17.0000      35.0000     54.0000
      361     38      2      17.0000      35.0000     60.1000
      362     38      3      17.0000      35.0000     60.2000
      363     38      3      17.0000      35.0000     60.3000
      364     38      3      17.0000      35.0000     60.4000
      365     38      3      17.0000      35.0000     60.5000
      366     38      3      17.0000      35.0000     60.6000
      367     38      3      17.0000      35.0000     60.7000
      368     38      3      17.0000      35.0000     60.8000
      369     38      3      17.0000      35.0000     60.9000
      370     38      2      17.0000      35.0000     61.0000
      371     39      2      17.0000      35.0000     67.1000
      372     39      3      17.0000      35.0000     67.2000
      373     39      3      17.0000      35.0000     67.3000
      374     39      3      17.0000      35.0000     67.4000
      375     39      3      17.0000      35.0000     67.5000
      376     39      3      17.0000      35.0000     67.6000
      377     39      3      17.0000      35.0000     67.7000
      378     39      3      17.0000      35.0000     67.8000
      379     39      3      17.0000      35.0000     67.9000
      380     39      2      17.0000      35.0000     68.0000
      381     40      2      17.0000      35.0000     74.1000
      382     40      3      17.0000      35.0000     74.2000
      383     40      3      17.0000      35.0000     74.3000
      384     40      3      17.0000      35.0000     74.4000
      385     40      3      17.0000      35.0000     74.5000
      386     40      3      17.0000      35.0000     74.6000
      387     40      3      17.0000      35.0000     74.7000
      388     40      3      17.0000      35.0000     74.8000
      389     40      3      17.0000      35.0000     74.9000
      390     40      2      17.0000      35.0000     75.0000
      391     41      2      17.0000      35.0000     81.1000
      392     41      3      17.0000      35.0000     81.2000
      393     41      3      17.0000      35.0000     81.3000
      394     41      3      17.0000      35.0000     81.4000
      395     41      3      17.0000      35.0000     81.5000
      396     41      3      17.0000      35.0000     81.6000
      397     41      3      17.0000      35.0000     81.7000
      398     41      3      17.0000      35.0000     81.8000
      399     41      3      17.0000      35.0000     81.9000
      400     41      2      17.0000      35.0000     82.0000
      401     42      2      17.0000      41.0000     18.1000
      402     42      3      17.0000      41.0000     18.2000
      403     42      3      17.0000      41.0000     18.3000
      404     42      3      17.0000      41.0000     18.4000
      405     42      3      17.0000      41.0000     18.5000
      406     42      3      17.0000      41.0000     18.6000
      407     42      3      17.0000      41.0000     18.7000
      408     42      3      17.0000      41.0000     18.8000
      409     42      3      17.0000      41.0000     18.9000
      410     42      2      17.0000      41.0000     19.0000
      411     43      2      17.0000      41.0000     25.1000
      412     43      3      17.0000      41.0000     25.2000
      413     43      3      17.0000      41.0000     25.3000
      414     43      3      17.0000      41.0000     25.4000
      415     43      3      17.0000      41.0000     25.5000
      416     43      3      17.0000      41.0000     25.6000
      417     43      3      17.0000      41.0000     25.7000
      418     43      3      17.0000      41.0000     25.8000
      419     43      3      17.0000      41.0000     25.9000
      420     43      2      17.0000      41.0000     26.0000
      421     44      2      17.0000      41.0000     32.1000
      422     44      3      17.0000      41.0000     32.2000
      423     44      3      17.0000      41.0000     32.3000
      424     44      3      17.0000      41.0000     32.4000
      425     44      3      17.0000      41.0000     32.5000
      426     44      3      17.0000      41.0000     32.6000
      427     44      3      17.0000      41.0000     32.7000
      428     44      3      17.0000      41.0000     32.8000
      429     44      3      17.0000      41.0000     32.9000
      430     44      2      17.0000      41.0000     33.0000
      431     45      2      17.0000      41.0000     39.1000
      432     45      3      17.0000      41.0000     39.2000
      433     45      3      17.0000      41.0000     39.3000
      434     45      3      17.0000      41.0000     39.4000
      435     45      3      17.0000      41.0000     39.5000
      436     45      3      17.0000      41.0000     39.6000
      437     45      3      17.0000      41.0000     39.7000
      438     45      3      17.0000      41.0000     39.8000
      439     45      3      17.0000      41.0000     39.9000
      440     45      2      17.0000      41.0000     40.0000
      441     46      2      17.0000      41.0000     46.1000
      442     46      3      17.0000      41.0000     46.2000
      443     46      3      17.0000      41.0000     46.3000
      444     46      3      17.0000      41.0000     46.4000
      445     46      3      17.0000      41.0000     46.5000
      446     46      3      17.0000      41.0000     46.6000
      447     46      3      17.0000      41.0000     46.7000
      448     46      3      17.0000      41.0000     46.8000
      449     46      3      17.0000      41.0000     46.9000
      450     46      2      17.0000      41.0000     47.0000
      451     47      2      17.0000      41.0000     53.1000
      452     47      3      17.0000      41.0000     53.2000
      453     47      3      17.0000      41.0000     53.3000
      454     47      3      17.0000      41.0000     53.4000
      455     47      3      17.0000      41.0000     53.5000
      456     47      3      17.0000      41.0000     53.6000
      457     47      3      17.0000      41.0000     53.7000
      458     47      3      17.0000      41.0000     53.8000
      459     47      3      17.0000      41.0000     53.9000
      460     47      2      17.0000      41.0000     54.0000
      461     48      2      17.0000      41.0000     60.1000
      462     48      3      17.0000      41.0000     60.2000
      463     48      3      17.0000      41.0000     60.3000
      464     48      3      17.0000      41.0000     60.4000
      465     48      3      17.0000      41.0000     60.5000
      466     48      3      17.0000      41.0000     60.6000
      467     48      3      17.0000      41.0000     60.7000
      468     48      3      17.0000      41.0000     60.8000
      469     48      3      17.0000      41.0000     60.9000
      470     48      2      17.0000      41.0000     61.0000
      471     49      2      17.0000      41.0000     67.1000
      472     49      3      17.0000      41.0000     67.2000
      473     49      3      17.0000      41.0000     67.3000
      474     49      3      17.0000      41.0000     67.4000
      475     49      3      17.0000      41.0000     67.5000
      476     49      3      17.0000      41.0000     67.6000
      477     49      3      17.0000      41.0000     67.7000
      478     49      3      17.0000      41.0000     67.8000